LAMMPS data file via write_data, version 12 Jun 2025, timestep = 50000, units = metal

720 atoms
4 atom types
1 bond types
1 angle types

2 extra bond per atom
1 extra angle per atom
2 extra special per atom

-22.307114119351702 21.307114119351702 xlo xhi
-8.693268376198976 8.693268376198976 ylo yhi
-8.503130103230374 8.503130103230374 zlo zhi

Atom Type Labels

1 Si
2 O
3 OW
4 HW

Bond Type Labels

1 OW-HW

Angle Type Labels

1 HW-OW-HW

Masses

1 28.0855
2 15.9994
3 15.9994
4 1.008

Atoms # full

661 0 2 0 -19.797591942406825 -6.716501632130122 -4.588967349044033 0 0 0
410 0 2 0 -19.77270524218866 -6.88956488166818 -7.367697413679685 0 0 1
106 0 1 0 -19.092717817955734 -6.935574445116245 -3.1697422782801548 0 0 0
685 0 2 0 -19.62760830617927 -4.5253638054205325 -6.130276768979742 0 -1 0
9 0 1 0 -19.40154619960795 -6.106300058194847 -6.010714475156807 0 1 1
531 0 2 0 -17.48435796188174 -6.9207847245309475 -3.5392708359833254 0 1 -1
204 0 1 0 -18.451937801547146 -3.444463258548005 -6.265134993961224 0 0 1
654 0 2 0 -17.725107801412946 -5.945184091267956 -5.801964269971607 1 0 1
573 0 2 0 -17.36314836342844 -3.627546119279887 -7.454671248813737 0 0 0
408 0 2 0 -17.72093323881793 -4.422494966919416 -3.748237191196136 1 -1 0
41 0 1 0 -16.86888886343447 -5.664583540076677 -4.425857504631542 0 1 0
556 0 2 0 -22.186352515600614 -5.378801338309244 -3.0065491474640123 1 0 1
386 0 2 0 -20.11822960406958 -3.5486468102570026 -2.9303621796801202 0 0 1
638 0 2 0 -15.339286091963924 -5.6204427249282425 -4.6074596328922865 0 0 0
6 0 1 0 -7.660050767383529 -4.810400934312621 -3.568819617920793 0 -1 0
532 0 2 0 -7.982942828319249 -3.468843484875711 -4.3382394096144274 0 1 0
656 0 2 0 -7.053175513578227 -5.974261942606802 -4.4063114687741995 0 0 1
506 0 2 0 -6.960353244995311 -7.802255984863117 -6.3681260698996445 0 1 1
666 0 2 0 -7.025181197551822 -8.494802930445518 -3.8676567905965964 0 0 0
174 0 1 0 -6.502308330115861 -7.388136659366129 -4.916001054244612 0 0 1
412 0 2 0 -4.889360532910164 -7.401959158651039 -4.813078679100201 0 0 0
335 0 2 0 -3.920341628814878 -6.617601859017948 -7.0794472351979545 0 0 0
450 0 2 0 -9.336772477661013 -7.670138007628207 -7.389529028182874 0 0 0
35 0 1 0 -3.510960932430365 -7.114896710662887 -5.608925580027981 0 1 0
288 0 2 0 -2.8145591488528723 -5.934371561189941 -4.749129299570255 0 1 1
481 0 2 0 -2.4689030443422055 -8.353936319988396 -5.575417866793989 0 1 1
477 0 2 0 -2.995402290787805 -3.4061533725649706 -8.116561870625501 0 1 1
132 0 1 0 -2.3729832952860477 -5.587317740422665 -3.18164815853903 0 0 -1
547 0 2 0 -0.7703308206340154 -5.615299129340475 -3.15787155573486 0 1 1
91 0 1 0 0.1242272414072012 -4.438871126978097 -6.76688681691405 0 -1 0
629 0 2 0 -0.675873887044343 -5.611673709384494 -7.571235550118496 0 0 1
289 0 2 0 0.6450562063624083 -5.0229712877592805 -5.361621453322425 0 0 1
595 0 2 0 -0.01614843174662539 -3.1437555980804603 -3.556255842711689 0 -1 0
105 0 1 0 0.4434379077030961 -4.71425360952661 -3.800271905662294 0 0 1
334 0 2 0 -1.0112876736476188 -3.2822044824530794 -6.441343028255089 0 0 -1
446 0 2 0 1.2563963913173417 -3.829673547032578 -7.667145431662842 0 0 1
392 0 2 0 1.8640849303187892 -4.964596966940149 -3.084865630402125 1 0 1
195 0 1 0 1.690120019600311 -8.581672331234271 -8.005376309354048 0 0 2
585 0 2 0 0.18752849188263454 -7.955928280243387 -8.215344783148492 0 0 1
527 0 2 0 2.7457051625719266 -7.454380525037023 -7.710052657409702 0 2 0
100 0 1 0 3.484561246456831 -4.992501291306947 -3.073915027418769 1 0 0
648 0 2 0 4.157677392513918 -5.189271543624427 -4.516190694246512 0 0 1
151 0 1 0 4.31806130471233 -4.204339040047981 -5.721218789563786 0 0 1
572 0 2 0 4.1881607690904445 -4.910996785295606 -7.1533705847173685 0 0 0
313 0 2 0 5.88055451792637 -8.098842726767773 -8.029897980596935 0 1 1
347 0 2 0 5.6939939278838665 -3.4550095602830133 -5.747270469927524 0 -1 1
713 0 2 0 5.466840132245931 -7.7589078027046465 -3.6944709912021736 0 0 1
377 0 2 0 6.957968766288747 -8.468231427579843 -5.723659909262362 -1 0 1
62 0 1 0 6.938338051402784 -7.772822573707296 -4.324173913614729 0 1 0
429 0 2 0 8.028248133587162 -3.573822162986949 -4.771547232020164 0 1 0
516 0 2 0 7.627875324820629 -6.295001902843457 -4.2556041988943045 0 0 0
129 0 1 0 8.554446973787076 -5.001415045972712 -4.073784870783347 0 0 -1
400 0 2 0 7.801364833704888 8.58814043828013 -3.351598341567123 0 -1 0
291 0 2 0 3.2572979439932688 -3.0285646213604265 -5.465765779520012 0 0 1
294 0 2 0 9.81449306198644 -5.31375983279491 -5.026591258944018 0 0 0
140 0 1 0 11.355246302310057 -5.2984874895909115 -5.5061523612912895 0 1 0
420 0 2 0 12.1920527441181 -6.03158518303014 -4.3570231880376795 0 1 1
639 0 2 0 11.875010983134068 -3.7758023570161425 -5.676734943761593 -1 -1 0
305 0 2 0 11.358980997991623 -6.094686400885629 -6.9190480288978655 0 1 0
139 0 1 0 11.856303644750064 -6.477981490183176 -8.4190702375273 0 0 0
31 0 1 0 13.235402282406895 -5.648316007974803 -3.2453717451909485 0 1 -1
565 0 2 0 13.200919558717423 -4.099209993372832 -2.922990284633997 0 1 1
261 0 2 0 11.024621488605824 -2.9727060536916916 -8.001098596424885 -1 1 1
255 0 2 0 14.76769737190643 -8.372990473811234 -4.369686885839954 -1 0 0
469 0 2 0 14.798865726291723 -5.856143662490154 -3.7051069354488533 0 2 -1
344 0 2 0 14.875096183758252 -6.392373621683453 -6.216887196333046 -1 1 0
145 0 1 0 14.99349850167269 -6.5204090822769665 -7.77979321324131 0 0 0
415 0 2 0 13.475435225668399 -6.75269896679804 -8.389483320607946 -1 1 1
689 0 2 0 21.129822761480742 -7.983441396218294 -3.5930745925427647 0 1 0
202 0 1 0 20.373053670113826 -6.5245999618394395 -3.4976574827513236 -1 0 0
244 0 2 0 19.67521910434462 -6.090765589274129 -4.88824575279909 -1 0 0
438 0 2 0 18.38698899641833 -7.1358966680450155 -6.939635052809373 -1 1 0
73 0 1 0 18.270004124733497 -6.115347014381084 -5.680296948412882 -1 1 0
322 0 2 0 18.08761831074319 -4.593731162750236 -6.130032104088769 0 1 0
628 0 2 0 17.059135866506274 -6.828424349063408 -4.8836833009542175 -1 0 0
1 0 1 0 15.4350695088702 -6.86496590295797 -4.749052233648777 0 1 0
155 0 1 0 18.81373882377654 -3.1731133347300977 -6.196804940199083 0 0 1
250 0 2 0 20.174831788616004 -3.0512864797548813 -7.187539003301276 0 0 0
563 0 2 0 15.884392266955025 -7.756270051760899 -8.31493966136255 0 1 0
146 0 1 0 18.93602550764915 -8.5089150625822 -7.565027050717504 0 1 0
346 0 2 0 -20.64865447176817 -0.012992872700344549 -6.269462107176842 1 1 0
312 0 2 0 -18.38740906498471 -2.210915669537779 -5.369578473844982 0 -1 1
214 0 1 0 -22.16505941627648 0.020304070014306674 -5.8567123056214525 0 -1 0
643 0 2 0 -7.47536042212047 -1.0251591129949515 -3.567681887597038 0 1 1
122 0 1 0 -7.28511910574835 -2.1227767457294036 -4.6513218531552845 0 0 1
360 0 2 0 -5.966970240203427 -2.0906316415719113 -5.4503542857074025 0 -1 0
635 0 2 0 -4.995886196551602 -0.4807835614160716 -7.129557260908736 1 0 1
716 0 2 0 -4.571813575052545 -0.18703105405920084 -4.4777483737427834 0 0 0
56 0 1 0 -4.644423221972531 -1.1502628802353279 -5.740954332350102 0 0 -1
519 0 2 0 -5.7493391564109295 2.6226010864802642 -4.3342598283798 0 1 0
43 0 1 0 -4.4570288737985635 -0.26941546857491794 -2.854733784827107 0 0 1
320 0 2 0 -3.375526116891816 -2.140420569671975 -5.908206919455365 0 1 0
659 0 2 0 -3.3476019322786428 2.4767427532426147 -5.6478049976509705 0 -1 1
173 0 1 0 -2.250563212893571 -2.487034198361939 -7.037166300023444 0 0 0
418 0 2 0 -1.8885700298308166 0.3184792953418665 -5.298104674417268 0 0 0
44 0 1 0 -1.8870391757978204 1.9321295281651594 -5.107739875410419 0 -1 -1
641 0 2 0 -1.7408110060754076 2.3444185332126377 -3.557989202095718 0 -1 0
474 0 2 0 -1.6062065599859068 -1.1932306389824738 -7.837210548152003 1 -1 0
141 0 1 0 0.058045773658800925 -1.7263659419661375 -4.205568521637867 0 -1 1
303 0 2 0 -0.24746278569270785 -0.4869920663044809 -3.3156200270080767 0 0 0
74 0 1 0 0.8615680366338125 2.009979997063125 -6.353707992881734 0 0 0
309 0 2 0 0.9494547654564904 0.7056728204538647 -7.281646680050143 0 0 1
393 0 2 0 1.4241486209410859 -1.3876643823951174 -4.844525047003671 0 0 0
38 0 1 0 2.3221927635619295 2.222409869956758 -3.5805849648363477 0 -1 0
431 0 2 0 1.6648087597822858 1.5844513775550872 -5.00590029959609 0 0 0
181 0 1 0 2.1330285568861846 -0.2622963643470957 -7.886848905914897 0 -1 0
704 0 2 0 -0.6372273484400566 2.5113261239124256 -5.973184744690069 0 -1 0
224 0 1 0 6.7638767256790935 -2.585636110478049 -4.904514997799553 0 0 1
592 0 2 0 6.293233442227127 -2.3566601656965247 -3.3563121809544043 0 -1 0
546 0 2 0 3.060912059038131 -0.6528515371108998 -6.652517032315759 0 0 0
218 0 1 0 2.9872381401832477 -1.4196655732306613 -5.231877498927911 0 1 0
416 0 2 0 3.9498726622019973 -0.6812719658428907 -4.166148833241712 0 0 1
483 0 2 0 3.87121369393477 1.890438236806121 -3.4817596174145846 -1 0 0
225 0 1 0 4.901214622078669 0.7456434125391755 -4.001367032143969 0 1 1
401 0 2 0 5.3988196976279355 1.0663774695649142 -5.495343897123213 0 0 1
367 0 2 0 6.172402234905967 0.5413193633240194 -3.0815310598454406 0 0 1
296 0 2 0 5.581025000836977 0.33918583311478123 -7.9387838282260015 0 0 0
121 0 1 0 6.416741255758257 0.43045762313236935 -6.519120636776444 0 0 0
618 0 2 0 6.8137322378061285 -1.100220645102599 -5.751058771024555 0 1 0
528 0 2 0 7.649526607079185 1.5144098978619418 -6.7157008927164545 0 0 1
580 0 2 0 8.680313321860634 -0.24677067668082486 -3.9300450484471083 0 0 -1
584 0 2 0 8.245234527885216 2.221601194112715 -3.1371676007457934 0 -1 0
104 0 1 0 7.874127325701725 0.6585504611094848 -2.8812615244478934 0 0 0
219 0 1 0 11.434356192685186 -2.4888181049622276 -6.499175079564139 0 0 -1
161 0 1 0 12.002908622085599 1.547699282942384 -5.793644064605817 0 -1 1
462 0 2 0 10.968076285894135 0.8181321861577437 -4.833278354300437 0 0 0
352 0 2 0 11.657332645557418 1.1535752830995971 -7.376442180079056 0 0 0
234 0 1 0 10.164131161138314 -0.5625739543871013 -4.514122779660715 0 0 0
428 0 2 0 10.344357958392202 -1.5391589568442647 -5.834618285249318 0 0 0
321 0 2 0 12.683292835076266 -1.4343363756203225 -6.693040097514733 0 0 -1
336 0 2 0 13.532694220121058 0.8417638964857588 -5.71509077827216 0 0 0
597 0 2 0 13.698464379954615 -1.3175972334200585 -4.3182978433267145 0 0 0
102 0 1 0 13.880443682991945 -0.7793117709422699 -5.813679557262109 0 0 0
606 0 2 0 11.203263304551285 -1.2795450302741216 -3.480573453632985 0 0 0
135 0 1 0 12.737265692416763 -1.006872794978122 -3.0315265699847496 0 1 0
642 0 2 0 19.239484006446084 -2.816130738639071 -4.644242107385213 0 0 0
554 0 2 0 15.732874907060989 -2.630605024532973 -8.465828352697718 -1 0 1
604 0 2 0 15.33617137267958 -0.9509843187374063 -6.52844678667159 0 0 -1
362 0 2 0 21.086779053146913 -0.9265284864090821 -4.620915241385997 -1 1 0
177 0 1 0 20.653951419076357 -1.797182275323979 -8.089967391646347 0 0 1
286 0 2 0 20.974263625290533 1.5255227001769018 -5.392234927585843 0 0 -1
598 0 2 0 20.59381338249473 -0.5037455776152555 -7.105990808897024 -1 0 1
211 0 1 0 20.14273321213168 -1.8530542263987293 -3.667969211181042 -1 0 0
144 0 1 0 20.10501667344058 2.4710898059992576 -4.358707152244293 -1 0 0
317 0 2 0 19.562624995003198 1.6885822467716167 -3.0450895851765303 -1 0 0
586 0 2 0 17.74462807229706 -2.113114699804064 -6.795111815790723 0 -1 0
85 0 1 0 16.455390385981268 -1.5124727485849405 -7.568237210016351 0 0 -1
498 0 2 0 18.093599668182904 1.5705305095063373 -7.283623188563845 0 1 0
232 0 1 0 17.705250456919515 1.806087264426159 -5.748693025159807 0 0 -1
411 0 2 0 17.980085005172313 0.5138976157932973 -4.807761707532483 0 -1 0
536 0 2 0 16.19826763103032 2.2544417212917214 -5.71695105587878 0 -1 1
10 0 1 0 18.39892372087187 0.5208167481330239 -3.2707837357878784 0 0 0
366 0 2 0 18.72428451573679 2.879184470385166 -5.081176226775355 0 0 -1
36 0 1 0 -22.216270948528187 7.954216031770613 -2.969795384936549 0 0 0
350 0 2 0 -10.77771738948067 6.44580146192739 -7.938400507851581 1 0 1
449 0 2 0 -5.611019890419925 2.91845864947347 -6.958766982719788 0 0 1
240 0 1 0 -8.202401244594375 8.671492678623085 -6.989484290497728 1 -1 0
306 0 2 0 -8.370600097707847 7.696036343319914 -5.71767326043971 0 0 0
212 0 1 0 -7.434524689434703 7.42547084570835 -4.364911644258665 0 0 1
626 0 2 0 -6.057591359628844 6.811348286658264 -4.968561452748242 0 -1 1
413 0 2 0 -6.120458230470145 5.879906340697731 -7.436607991178672 0 0 1
222 0 1 0 -5.146006606615483 6.163490119048934 -6.1532406107603155 0 0 -1
715 0 2 0 -4.553865048292657 4.727431360417382 -5.594738259047591 0 0 0
65 0 1 0 -4.842022640944673 3.1503527882914497 -5.606143220712952 0 0 0
332 0 2 0 -3.8555402823418383 7.056188818390277 -6.452621724012657 0 -1 0
568 0 2 0 -7.8218857598624325 7.696161722201122 -8.199733488226356 1 0 0
87 0 1 0 -7.223748949379061 6.263693785790277 8.453821373477831 0 0 1
486 0 2 0 -8.348476104552121 5.0054055498499945 8.288745900804892 0 -1 0
111 0 1 0 -2.4402916615240287 7.433235499663169 -5.75324744284506 0 0 1
419 0 2 0 -2.323748145402984 6.633783244830061 -4.346727073072729 0 0 1
720 0 2 0 -1.0968880132987913 7.027028356794414 -6.509930308986182 0 -1 0
114 0 1 0 0.40984262581612896 6.993377464059783 -5.875950101680585 0 -1 0
439 0 2 0 0.3881134121326255 7.627423566495967 -4.412900350588691 0 -1 0
610 0 2 0 0.8516704336515311 5.439446247382669 -5.822457518075443 0 -1 -1
277 0 2 0 1.469981368700818 7.757456234901905 -6.847339927976113 0 -2 0
379 0 2 0 1.668381519575643 3.2480488766527067 -7.088151574786802 0 0 1
68 0 1 0 1.866499344157777 4.859279239546895 -6.994542623234497 0 0 1
487 0 2 0 2.1057373212892116 3.888202325192978 -3.6357020959777167 0 -1 0
542 0 2 0 1.2174323255772386 5.478995468180148 -8.347403149812687 0 0 1
223 0 1 0 0.555981664108387 7.487150730961222 -2.831885951300684 0 0 1
42 0 1 0 2.5583281779474696 5.381801087244721 -3.127579833697716 0 -1 -1
370 0 2 0 3.3404013866788596 5.327090375356152 -6.63973471440677 0 0 1
190 0 1 0 7.947245400489415 3.1127625483627597 -6.631505618557593 0 0 2
647 0 2 0 2.9911433902219926 6.364891059528796 -4.423774180965119 0 0 0
185 0 1 0 6.13300340024016 8.210018321480135 -6.897852347960268 0 0 0
254 0 2 0 4.757357819934786 7.564222374442817 -6.270098340410234 0 1 1
235 0 1 0 4.108124108478616 6.29472536721887 -5.531932280421097 0 1 1
587 0 2 0 5.31177141842284 5.767558125710989 -4.478007941746214 0 -2 -1
368 0 2 0 6.942253719938069 6.899906575870775 -7.5291041622759085 0 0 1
460 0 2 0 7.264337681950966 3.600073275905041 -5.228622767857218 0 0 0
208 0 1 0 7.048041888045525 5.554984399894003 8.487649101404338 0 0 0
574 0 2 0 7.438291124314368 4.117404355412209 -7.791830390365471 0 0 1
4 0 1 0 7.736048350294176 3.6566710356545347 -3.6613630043616956 0 0 0
284 0 2 0 6.4871350232402705 4.1717875911233975 -2.8347122400075992 0 1 0
184 0 1 0 5.473562737501734 5.385434343810424 -2.8391313322797362 0 -1 1
436 0 2 0 12.033174995081502 3.1229331535679545 -5.6677293637679345 0 0 0
13 0 1 0 9.284469901091846 8.022669984882778 -3.1884112147038284 0 -1 0
276 0 2 0 9.518350085622611 3.3675050091170675 -6.380070551287785 0 -1 0
645 0 2 0 9.863636745752238 7.722543053801289 -4.67029077403864 0 -1 1
290 0 2 0 11.160391939557805 5.607955547044639 -5.823004255028653 0 0 -1
24 0 1 0 10.94806047367274 4.085048366961217 -6.4657527038777 0 0 1
116 0 1 0 11.006238493738223 7.2085569607209035 -5.732352922806628 0 -1 0
361 0 2 0 9.069865344331731 4.590171504822276 -3.656726819818969 0 0 0
539 0 2 0 10.516391918584596 7.670484288284232 -7.198262895296499 0 0 1
634 0 2 0 12.437184959677772 7.900378946736783 -5.281151989302607 -1 -1 0
513 0 2 0 11.425980935087686 4.097547430689087 -8.008516272691184 0 0 0
48 0 1 0 13.624654861583885 7.84044547559855 -4.193889823663326 0 0 0
684 0 2 0 14.439611564357364 6.53772399712112 -4.578575765973161 0 0 0
664 0 2 0 11.59310666251799 5.322414986577348 -2.8786893546814296 0 0 -1
363 0 2 0 13.107089379485316 7.417070852686326 -2.7292636420239047 0 0 0
126 0 1 0 15.340571868820533 3.4703142834875447 -5.240551886348869 0 0 0
617 0 2 0 15.236837201107676 4.776338307436102 -6.17731476227792 -1 -1 1
517 0 2 0 15.301366374786433 3.789389366378689 -3.720505442641378 -1 1 -1
241 0 2 0 21.223931870048936 6.5154388263624075 -3.6267389546071698 -1 0 0
578 0 2 0 20.89894450681873 3.777475967359532 -4.061784567804822 0 -1 0
83 0 1 0 20.464218908970253 5.110803863454205 -3.2384468437794878 -1 0 1
374 0 2 0 20.01692267704685 8.190100013170614 -6.610860028510761 0 0 1
93 0 1 0 17.685438711774218 6.465560243519411 -3.7011400453358316 0 -1 1
599 0 2 0 15.339330145028129 7.479607226899027 -6.791784984617999 -1 -1 0
330 0 2 0 17.00106331589658 6.355580203134801 -5.128404215549152 0 0 0
149 0 1 0 15.508249241276204 6.330225779820234 -5.768670449808547 -1 -1 0
16 0 1 0 16.085052550455465 8.060924379994919 -8.116464888156171 -1 0 1
351 0 2 0 18.11551865448525 7.975663505524775 -3.491456947391871 -1 0 1
451 0 2 0 18.911401009820203 5.405779347195807 -3.5323767485437267 -1 0 1
669 0 2 0 17.650145256244443 7.8693487364613155 -7.751528480796161 0 0 0
658 0 2 0 -19.46305518432144 -8.228306560817332 -2.4205298435153226 0 1 1
263 0 2 0 -19.234312959685845 -5.689847591803294 -2.1759444879265146 0 0 0
553 0 2 0 -21.343878171223892 -4.041564052446016 -0.778554588722657 0 0 0
71 0 1 0 -21.914037363700796 -4.019293693979065 0.6915186556360684 0 0 0
535 0 2 0 -21.815919418020414 -5.511685771605746 1.311396272267169 1 1 0
323 0 2 0 -20.738154965037843 -7.459759285949541 -0.09724346957819208 0 1 0
201 0 1 0 -21.114669861461604 -6.893312600109425 1.4592498826351328 0 1 1
550 0 2 0 -21.917823559133577 -8.042029819538156 2.2664006218551 0 0 0
620 0 2 0 -19.721053839824883 -6.698909080011635 2.1845782132504343 0 -1 -1
69 0 1 0 -18.70273002692159 -4.193443719675455 -2.516799167536469 1 1 0
465 0 2 0 -17.84558820094874 -3.5758298142622555 -1.198130911171325 0 1 0
544 0 2 0 -17.315116046200842 -4.333951206133844 1.518543266612788 1 0 -1
215 0 1 0 -17.07837033967187 -3.492585369366429 0.20448188777459997 0 0 0
164 0 1 0 -21.604540462699422 -3.9640163208253014 -2.413787897737194 0 0 1
625 0 2 0 -17.298096728693636 -6.536208586074353 3.1941125258649397 0 0 0
34 0 1 0 -16.56646050658503 -5.126026159179846 2.7223113387573683 0 0 0
534 0 2 0 -21.198125349025357 -2.91211548205205 1.626091878915977 1 0 0
292 0 2 0 -15.064789611935726 -5.31313749324215 2.265067375749341 1 1 1
512 0 2 0 -7.591848520258965 -4.705104007655545 -2.039882719098963 0 0 0
426 0 2 0 -6.50133638387986 -4.10372431179826 0.5214687278758827 0 1 1
137 0 1 0 -5.688346316213401 -3.8059957216031552 1.8404437078225335 0 -1 1
206 0 1 0 -6.626293454222299 -3.8471631391454606 -1.0008544866672153 0 0 1
652 0 2 0 -4.485439125368131 -4.845191495886508 2.131549472584531 0 0 0
297 0 2 0 -5.137634404642871 -4.2034388938401825 -1.586795771103267 0 0 0
341 0 2 0 -3.595482574969406 8.663438948929137 2.647701667266146 0 -1 1
538 0 2 0 -3.645692009035841 -7.971879828721557 -0.009055245959563862 0 0 0
80 0 1 0 -3.475125594762538 -8.033822094126787 -1.5543102048481305 1 1 -1
12 0 1 0 -3.861214049848307 -3.248108161048129 -1.7614197110361651 0 0 1
637 0 2 0 -2.810504421966492 -4.053414034731739 -2.732658066421976 0 1 1
425 0 2 0 -3.0784520792304058 -6.65826604558695 -2.2230435085010916 0 0 0
454 0 2 0 -1.4749374346649518 -8.517103974064788 1.3360384361230544 0 0 1
384 0 2 0 -0.09791839212590858 -6.513324877899841 2.511157013331502 0 0 0
125 0 1 0 -0.4261014728589281 -8.117121457262225 2.528127631811431 0 0 1
522 0 2 0 1.1614662618691582 -4.285010121816758 2.12977313775553 0 0 -1
349 0 2 0 2.156014727410888 -7.709388896222564 0.2258608267590141 0 0 0
148 0 1 0 2.35346781108235 -8.545674900997971 1.581358365498918 0 1 0
61 0 1 0 2.418988024616077 -8.106826272826128 -1.267404503129197 0 1 0
327 0 2 0 1.2859116228398229 -8.567924285309282 -2.2180187949401793 0 1 0
130 0 1 0 2.149219290689384 -3.0063911597871122 1.9543345559604095 0 -1 0
245 0 2 0 -3.315434866511417 -3.0347203691895093 -0.22471634594619339 0 1 1
258 0 2 0 3.8609089371213585 -6.223285787625989 -2.149155705679525 0 0 0
627 0 2 0 4.025724319525061 -3.5546779471432473 -2.497197111353776 0 0 1
364 0 2 0 6.32021748515232 -4.557457835049225 -2.159463811339391 0 0 0
143 0 1 0 4.860334381258465 -7.487705126150763 -2.2821101300074202 -1 1 1
272 0 2 0 6.130998153834838 -7.1891199972701445 -1.3781904194134995 0 1 -1
196 0 1 0 6.9004056804504685 -7.844039540556249 -0.13493994955745414 0 0 -1
591 0 2 0 6.9170196494332 -6.885528854684112 1.1807155237015508 -1 1 0
502 0 2 0 8.22719355889943 -4.933628344970972 0.10670385605187604 0 0 0
421 0 2 0 8.470691575447546 -8.057305882091988 -0.565445903406335 0 0 -1
92 0 1 0 7.8092779609273535 -5.603940931761643 1.5025873793538338 0 1 -1
582 0 2 0 3.779025182791109 -8.58611102515452 -1.7665560894794075 -1 0 1
705 0 2 0 3.319815144690441 -7.629036407821139 2.5346145599094267 0 -1 0
266 0 2 0 3.5540593467530144 -3.2271389916910884 1.1709262543820298 0 0 0
464 0 2 0 6.707005887473148 -4.74530891372077 2.304151909901579 0 1 0
158 0 1 0 5.552406778157369 -3.1700535129465663 -2.1336612988025223 0 0 0
443 0 2 0 9.066877364748507 -4.754052909873598 -2.580038898544032 0 -1 -1
7 0 1 0 9.410341510473803 -4.786966313924002 -0.9823818303925158 0 0 -1
435 0 2 0 10.397534327593583 -3.620293526649955 -0.5718000779763805 0 -1 0
632 0 2 0 10.205134299817239 -6.185641152536753 -0.7252587960521684 0 1 1
678 0 2 0 11.268885171553507 -3.9880908004776803 1.8564291749306197 0 0 -1
95 0 1 0 10.077877940106553 -7.7639696215869884 -0.9161567345618176 0 0 0
478 0 2 0 10.192344117277202 -8.235641467891668 -2.4113854705928803 0 1 0
200 0 1 0 12.473580981827688 -4.961156001101225 2.1822683415442405 -1 1 0
423 0 2 0 12.937627598023688 -6.4178481419005635 -1.8494617827925133 0 0 0
699 0 2 0 12.640263707512084 -6.049797997567914 1.0104073546171541 0 0 0
197 0 1 0 13.423950131150896 -5.922526060184782 -0.4289151435070053 -1 0 0
615 0 2 0 13.649460339200346 -4.341248456366327 -0.5459453270364811 0 0 0
385 0 2 0 13.82907920333021 -4.077244644752196 2.1733961616239803 0 0 -1
45 0 1 0 13.820260756683744 -3.2477650605287733 -1.6970278417703772 0 1 0
686 0 2 0 10.971189143105356 -8.516730519840609 0.2205001712903929 0 1 0
325 0 2 0 14.834330746223628 -6.662323276170092 -0.35809523985438396 -1 1 0
247 0 2 0 11.236538377678627 -7.933789308382683 2.810722727277952 -1 0 0
515 0 2 0 9.00621451666525 -5.957303334831577 2.5647929802264624 0 -1 -1
49 0 1 0 10.712831858770976 -2.8851812410451725 0.813960257308004 0 0 -1
353 0 2 0 20.09790389806333 -3.7177964405881294 0.5286414002138091 0 -1 -1
399 0 2 0 19.115096092528155 -6.961069560179946 -2.5661611326499614 -1 -1 0
497 0 2 0 16.69119564329995 -5.255174136008719 -1.4179064972456459 0 0 0
160 0 1 0 16.41340980248512 -6.690781660096447 -0.7923361521256362 0 1 0
128 0 1 0 16.800059631092964 -7.035899680039699 1.986740228148438 -1 0 0
427 0 2 0 17.264379595076655 -6.877293740706511 0.49881212151109544 -1 -1 0
183 0 1 0 16.58098315490119 -3.775425673081953 -0.8977591124792479 0 0 0
718 0 2 0 17.957121229364866 -3.0072412480862614 -1.0659322418311943 -1 0 0
612 0 2 0 15.41733413817667 -3.059314720898448 -1.763549236949241 0 0 -1
473 0 2 0 16.21934299356964 -3.8004861002495858 0.7170427219582276 -1 0 1
577 0 2 0 15.69846689811871 -8.18275526962827 2.1066328021521112 0 0 0
58 0 1 0 15.424690039997373 -4.170525012217991 2.104706092073032 0 0 0
270 0 2 0 16.85839787882677 -7.893330327792525 -1.7111409415734036 -1 0 0
667 0 2 0 15.906490306232492 -5.694239498637099 2.381987524100884 -1 1 0
103 0 1 0 18.306517345713765 -8.361786406465532 -2.25784038544957 -1 0 0
558 0 2 0 20.91658851053939 -2.809348424596558 -2.6717239675293456 0 0 0
262 0 2 0 -16.0471632140883 -0.4423005149300323 1.7761368496023504 0 0 0
302 0 2 0 -15.796557362004496 -2.5765481963515446 0.36094549626045414 1 0 1
567 0 2 0 -13.838183316896162 -1.721014427897967 2.3725165189049253 0 0 0
131 0 1 0 -14.89976297425866 -1.365312307045893 1.1207909346752842 1 0 0
541 0 2 0 -13.888139571121203 -0.5118573546113581 0.14971586120879188 0 1 0
674 0 2 0 -12.666141946358815 0.4755554553002064 2.1098285637346326 1 0 1
19 0 1 0 -12.465643947848191 0.35201162660798424 0.47335931526063924 1 1 0
514 0 2 0 -11.05631408637914 -0.4024646472864415 0.11744866885967475 1 -1 0
673 0 2 0 -12.237774118587398 1.8276922597097922 -0.05301471100464994 0 0 1
314 0 2 0 -4.180205399082471 -1.85027263708169 -2.4724367862535512 0 0 0
622 0 2 0 -9.13501107288571 -2.2655277635479667 0.4969371245565348 1 0 0
147 0 1 0 -9.45092418724234 -0.6734446885982148 0.19488226036354206 0 1 -1
264 0 2 0 -8.936397426981856 0.1726651121939753 1.4314139417129308 0 0 1
526 0 2 0 -8.501030844262898 -0.3196271120937997 -1.0721184495960783 0 1 0
180 0 1 0 -8.133357807779388 0.250431342521086 2.882472301164958 0 1 0
127 0 1 0 -7.232331578455954 -0.7969122390802497 -1.9602085078418279 1 0 0
624 0 2 0 -6.8839179873382506 -2.275714858860721 -1.365026152405708 0 0 -1
390 0 2 0 -5.8294753599250235 0.024391264277374702 -2.005786144074831 0 1 1
700 0 2 0 -4.852679445343561 -2.26242778178411 1.9273099232361375 0 0 0
588 0 2 0 -4.238722532679795 1.967786270598019 0.7450794094805051 0 0 0
326 0 2 0 -4.603945412095836 0.22619477757251083 2.6697190219470865 0 0 0
581 0 2 0 -5.040231444449471 2.76395953060144 -1.7466970750536266 0 0 0
485 0 2 0 -6.969511481131411 -0.8496877751194853 2.9420728164994348 0 0 -1
676 0 2 0 -7.2949865583531075 2.8999969135068824 0.5523228963362055 0 0 -1
188 0 1 0 -3.579067025754348 0.7631051629570518 1.5557501996465728 0 1 1
633 0 2 0 -3.2580845967133705 0.5983144420873554 -2.237027899211755 1 0 0
690 0 2 0 -3.312480308752505 -0.5373985485784765 0.7334222778107762 0 0 0
70 0 1 0 -3.4031687269253545 -2.1138925079255317 1.076726823452038 0 1 0
231 0 1 0 -2.079798472828678 1.7668821342208751 -2.065301387191825 0 -1 0
397 0 2 0 -2.229335387700676 -2.4182800474872437 2.1697664334452504 0 0 0
653 0 2 0 1.5147852042549736 1.4592789509358433 -2.3974311544603193 -1 1 0
668 0 2 0 -2.1056769343704396 1.2688552844510372 2.1494620012430588 0 0 0
375 0 2 0 -0.8470693099260167 1.0332324599822815 -1.376054192312628 0 0 0
107 0 1 0 0.3965543790382817 0.349887478142179 -2.0821725182758666 0 1 1
607 0 2 0 1.3332958419595933 -1.7775372315142723 1.2194825124758637 0 0 0
268 0 2 0 1.7311533076633303 0.7521662524307704 0.8922936521998412 0 0 0
476 0 2 0 1.0221793490030713 -0.8033305435548446 -1.1660553605767126 0 0 1
75 0 1 0 1.8823839100122157 -0.6556379336546865 0.15042672329911433 -1 -1 1
109 0 1 0 1.759368917287862 1.4147061592709242 2.315678447704906 0 0 1
505 0 2 0 0.3465350070019326 2.077797538245747 2.640387062119027 0 -1 1
494 0 2 0 3.4658870089791876 -0.9823395376658723 -0.04942313479805982 0 0 0
391 0 2 0 5.540667988815148 -2.4902597568386033 -0.6564278753347565 1 0 -1
3 0 1 0 4.517525463251111 -2.0285228408565175 0.5205161576547646 0 0 0
636 0 2 0 5.271190595851351 -1.4335408881817013 1.7716784497180047 0 0 0
655 0 2 0 7.299376844577765 2.2499233500234492 0.04987973299567727 0 0 0
269 0 2 0 8.45831807496145 0.32903085921376274 -1.4039120942029957 0 0 1
94 0 1 0 8.477073649953603 1.1273304519017344 0.08713693628461172 0 1 0
229 0 1 0 8.668654094260798 -1.1053802373539812 2.2339130334539323 0 -1 -1
383 0 2 0 8.235188414522586 0.05819710110182541 1.2596397687060907 0 0 1
696 0 2 0 2.9807356632101936 2.529142377589455 2.446367133257654 0 0 0
430 0 2 0 12.933500964272817 0.5582343720435041 -2.6599470694709204 -1 0 0
493 0 2 0 9.306646843233057 -2.2615940523260356 1.3470350276798122 0 1 0
583 0 2 0 11.761226106439487 -1.6531951190366252 0.6852691690415149 0 1 0
414 0 2 0 12.070116676546746 2.5740771225032724 -1.3198113796641566 0 0 1
417 0 2 0 9.889497487846285 1.9198440428908956 0.1565308961856946 0 0 -1
459 0 2 0 12.970070839058856 0.5871602287197764 0.045387148584680403 0 -1 1
113 0 1 0 13.010363280572214 -0.6309769727826193 1.0868860461268035 -1 0 -1
189 0 1 0 13.191207550292305 1.417115707024756 -1.3178852339821603 0 0 0
403 0 2 0 13.160106045504229 -1.8699742288084957 -1.7590785505973674 0 1 0
683 0 2 0 13.739950876657716 2.623879694672274 2.525902406511074 0 0 1
557 0 2 0 14.472837178174188 -1.3527113354569913 1.1245666363556843 0 0 -1
389 0 2 0 12.691933603342541 0.12387147988417979 2.464214016022508 -1 0 -1
712 0 2 0 14.800635532349332 1.8044825445294173 -1.457598416506217 -1 -1 0
33 0 1 0 19.141589548562656 -2.656343303652526 -0.12124590788173784 -1 0 0
339 0 2 0 19.082849358154924 -0.8077768959226805 -2.89527888051178 -1 0 0
50 0 1 0 19.509278737109973 -0.4384253636373838 1.9036925470581725 -1 0 0
504 0 2 0 19.19525184962778 1.0792280662057863 1.7057516713307201 0 0 0
571 0 2 0 17.020418037833153 1.5396802824085096 0.15512632888236766 -1 1 0
243 0 2 0 17.133638063077676 1.0029531327025278 -2.4146587435392206 -1 0 0
60 0 1 0 16.40693872588509 1.947413921236853 -1.3135965326147634 -1 0 0
52 0 1 0 18.286435447335016 2.1445551705328505 0.9035632998329657 0 0 0
246 0 2 0 19.293159560508087 -1.2155007395945345 0.4649680195846422 -1 0 0
719 0 2 0 21.02415049549846 -0.863321479865939 2.300868996599492 0 1 0
82 0 1 0 -20.195681759268027 -8.630093750892112 -1.072739291247438 0 1 0
316 0 2 0 -18.305318780563592 8.534128223265878 2.3402487983075435 0 -1 1
466 0 2 0 -21.449753938928193 7.9332301274658406 -1.6177123519535401 1 0 1
492 0 2 0 -20.532844298335124 7.171105421776483 2.04984463058981 0 0 0
207 0 1 0 -22.021702799417014 7.71905522957459 2.252072586591396 0 0 0
422 0 2 0 -19.250988205666573 7.797012360478387 -0.10456941081804771 0 0 0
237 0 1 0 -19.167060499647462 7.5647698475174145 1.4592918124736372 1 -1 0
575 0 2 0 -11.652715078707006 4.313564885384938 -0.6999140609620653 0 -1 1