LAMMPS data file via write_data, version 12 Jun 2025, timestep = 50000, units = metal

720 atoms
2 atom types

-17.94569129548136 16.94569129548136 xlo xhi
-8.693268376198976 8.693268376198976 ylo yhi
-8.503130103230374 8.503130103230374 zlo zhi

Atom Type Labels

1 Si
2 O

Masses

1 28.0855
2 15.9994

Atoms # full

244 0 2 0 -16.96555332951228 -6.4832476399150085 -4.607317053592064 0 0 0
202 0 1 0 -16.008544487829383 -7.494323282275918 -3.664861980308718 0 0 0
263 0 2 0 -14.619702162539708 -6.660416989687462 -3.3761775930217395 0 0 0
531 0 2 0 -12.230193800151735 -5.766979576188139 -3.393428623615388 0 1 -1
250 0 2 0 -17.248477592847244 -3.4774712156187757 -6.517588693163637 1 0 0
408 0 2 0 -13.219806791891532 -3.6080825287010594 -4.551490816689537 1 -1 0
661 0 2 0 -12.864194645810766 -7.46976262788926 -5.169865595759646 0 0 0
106 0 1 0 -13.089361129990195 -7.136687738819464 -3.606154868117404 0 0 0
410 0 2 0 -12.960339233867348 -6.590811506346482 -7.829761818701161 0 0 1
438 0 2 0 -17.76864034763773 -7.303121628805251 -6.97866230689854 0 1 0
9 0 1 0 -12.173622200667117 -6.705079514597221 -6.450187433268567 0 1 1
146 0 1 0 -17.84216019945414 -8.64228248986722 -7.869980677087449 1 1 0
556 0 2 0 -15.562979416255384 8.622424544811327 -4.565199742794791 1 -1 1
386 0 2 0 -15.383266977075579 -3.3783220373341027 -2.93157561631958 0 0 1
41 0 1 0 -11.900476501656335 -4.586394341087807 -4.461850267341972 0 1 0
654 0 2 0 -11.728588381914657 -5.250619995235351 -5.864210038557067 1 0 1
656 0 2 0 -8.670266529197436 -5.981175688825967 -4.4159199964729225 0 0 1
666 0 2 0 -7.769726761974217 -8.31989843618157 -3.625543659326885 0 0 0
174 0 1 0 -7.7197186736175425 -7.208277587643888 -4.7862667744623435 0 0 1
450 0 2 0 -10.797719539836871 -7.449368331686483 -6.7031825092179815 0 0 0
638 0 2 0 -10.550155712978942 -4.048882188363635 -3.8653764729034883 0 0 0
6 0 1 0 -9.027121761739386 -4.616563411686614 -3.732124363030964 0 -1 0
506 0 2 0 -8.290802742061588 -7.882511728448279 -6.093947454485608 0 1 1
532 0 2 0 -8.09454227362146 -3.46309780598863 -4.258780755949604 0 1 0
412 0 2 0 -6.146244088101007 -6.775115511435926 -4.886207101264226 0 0 0
132 0 1 0 -3.4397842335668702 -5.584922513508351 -3.0651242738460063 0 0 -1
547 0 2 0 -1.805205462652708 -5.802445966367408 -3.201267626462455 0 1 1
288 0 2 0 -3.922116236337141 -5.470798560022725 -4.579111250064591 0 1 1
35 0 1 0 -4.706646442200638 -6.608551804847071 -5.517756104958567 0 1 0
481 0 2 0 -3.8801786308761574 -7.982010043369163 -5.318945263868375 0 1 1
335 0 2 0 -4.895963096191908 -6.25366671482948 -7.060990303337302 0 0 0
91 0 1 0 -1.3757606887671265 -4.07528012990739 -6.7565692576128775 0 -1 0
629 0 2 0 -2.142493133840807 -5.040914509621311 -7.804221781205414 0 0 1
289 0 2 0 -0.7769589964903219 -4.867883866960359 -5.4758836940098 0 0 1
595 0 2 0 -1.091150952172896 -3.191151512049398 -3.5218989798100786 0 -1 0
105 0 1 0 -0.752894885724281 -4.80938862945124 -3.867892306025717 0 0 1
477 0 2 0 -4.315481053623325 -3.186552980223202 -7.96291991200682 0 1 1
334 0 2 0 -2.309766120981621 -2.890969554639657 -6.243341592721295 0 0 -1
446 0 2 0 -0.18004072386793624 -3.420627371487491 -7.641280831442322 0 0 1
648 0 2 0 3.012844997426985 -5.065453480053707 -4.493039007268363 0 0 1
151 0 1 0 3.05997515846029 -4.057239325529504 -5.795355116251397 0 0 1
572 0 2 0 2.7890637868463664 -4.8346593844596395 -7.158467260773575 0 0 0
527 0 2 0 1.6539628982220371 -8.277923635080843 -7.331467140381422 0 2 0
392 0 2 0 0.6529266934824847 -5.113396469174144 -3.2239311891695053 1 0 1
100 0 1 0 2.211644008638803 -4.857656513019567 -3.061449080994225 1 0 0
313 0 2 0 4.591562530314224 -8.203352748934371 -7.938236417552915 0 1 1
347 0 2 0 4.484616061778734 -3.3594846317066596 -5.873282037957049 0 -1 1
195 0 1 0 0.28461033328338914 -8.393236296437275 -8.110395427631842 0 0 2
713 0 2 0 4.202204819340462 -7.751578531236076 -3.5292534168718834 0 0 1
377 0 2 0 5.598425023794341 -8.519590195620275 -5.652762431820994 -1 0 1
62 0 1 0 5.599763835730066 -7.673613947064279 -4.305656377723577 0 1 0
129 0 1 0 6.975770882167232 -5.031253089549542 -3.8178727476565584 0 0 -1
429 0 2 0 6.6281843413676 -3.516048504013672 -4.424436123918003 0 1 0
294 0 2 0 8.469313663488197 -5.388641606103484 -4.219993290384845 0 0 0
140 0 1 0 9.605052370077296 -5.4454993789874715 -5.340943345886272 0 1 0
420 0 2 0 10.84187393325669 -6.117380116155288 -4.713180954948749 0 1 1
516 0 2 0 6.041930007406993 -6.13177138849431 -4.512504393972396 0 0 0
639 0 2 0 9.961461548871 -3.887972994824991 -5.691197820725686 -1 -1 0
305 0 2 0 9.090938170766357 -6.198454538772634 -6.685603659926272 0 1 0
139 0 1 0 9.899388906836194 -6.417376231026389 -8.089344239847037 0 0 0
400 0 2 0 6.616492802301028 -8.386671994772845 -3.319548298066885 0 0 0
261 0 2 0 8.753563857547487 -3.03514241545179 -7.804481638071428 -1 1 1
73 0 1 0 16.66554602818696 -6.678647637037118 -5.574901464250006 -1 1 0
322 0 2 0 15.924513691176287 -5.267354871294108 -5.657641918181236 0 1 0
565 0 2 0 11.763986472924572 -4.1388430228760145 -3.2819574057561773 0 1 1
628 0 2 0 15.4718023536755 -7.630810072180577 -4.894866652022099 -1 0 0
1 0 1 0 13.895611003282745 -7.4718691551996015 -4.688502414309167 0 1 0
31 0 1 0 11.816896983223486 -5.753373729992942 -3.5269952395705113 0 1 -1
469 0 2 0 13.328786715737362 -6.160053393602379 -3.934210937680505 0 2 -1
510 0 2 0 13.93322990201106 -5.544638863189974 -7.85183132533824 0 1 0
145 0 1 0 12.84492261714697 -6.744308905702976 -7.507427924362697 0 0 0
415 0 2 0 11.433285432297872 -6.0912810348780475 -7.701690147905007 -1 1 1
344 0 2 0 13.170605309058168 -7.375724390779432 -6.115266161431471 -1 1 0
155 0 1 0 16.12277247612888 -3.6876420294870043 -5.903890827761995 0 0 1
563 0 2 0 13.070411098200697 -7.98070724275106 8.385300039290895 0 1 -1
255 0 2 0 13.134769591940696 -8.678522684913563 -3.9685787441641303 -1 0 0
669 0 2 0 15.54887128927885 -8.679432247656752 8.494708821059744 0 1 -1
69 0 1 0 -14.07727023220633 -2.6756858652093545 -3.610319409517662 1 1 0
324 0 2 0 -15.036077503685126 -2.4821329568173427 -8.039317872653841 0 1 0
346 0 2 0 -14.602237561204271 -1.3575048023084246 -4.534302730395041 1 1 0
362 0 2 0 -16.975452725762587 -1.3326058446251965 -3.9140538809227783 0 1 0
598 0 2 0 -16.50318097716605 -1.0956674569481866 -6.477658936811654 0 0 1
214 0 1 0 -15.939743715765681 -0.6663429260080242 -5.030631025920675 0 -1 0
286 0 2 0 -16.022623007045716 0.8780336498486729 -4.869240877666012 1 0 -1
144 0 1 0 -17.107929349730462 1.9808181778691534 -4.390411104590946 0 0 0
177 0 1 0 -16.564594388124068 -2.4045775020362576 -7.492945354184087 1 0 1
317 0 2 0 16.92517175616912 1.470432718149583 -3.0549310896689494 -1 0 0
573 0 2 0 -10.136458058245617 -2.452098090968975 -8.097846179391292 0 0 0
643 0 2 0 -8.574564890089393 -1.1811462977189562 -3.3107964938311367 0 1 1
312 0 2 0 -9.802690294672358 -1.754774483749964 -5.56947432092856 0 -1 1
122 0 1 0 -8.436696407683874 -1.956976023975332 -4.716084991780482 0 0 1
685 0 2 0 -11.347258340646626 -0.253529063452838 -7.196098333054156 0 -1 0
204 0 1 0 -10.26423780696522 -1.3315329244464396 -7.00602315991963 0 0 1
360 0 2 0 -7.250261458575675 -1.568806092544878 -5.756476536877384 0 -1 0
635 0 2 0 -5.871109403373625 0.13139784998301351 -7.077713588262244 1 0 1
173 0 1 0 -3.5374300918018324 -2.160197246758492 -7.002397755152737 0 0 0
320 0 2 0 -4.6242854998049285 -1.8136883016821583 -5.795605033842785 0 1 0
716 0 2 0 -5.884841324859941 0.014492250333775658 -4.28208663285611 0 0 0
418 0 2 0 -3.1771751696754684 0.6943692176571528 -5.155882288380694 0 0 0
56 0 1 0 -5.872436715273134 -0.7785051230956208 -5.75012508704948 0 0 -1
44 0 1 0 -3.178587146806681 2.2589696687180467 -5.115049355193778 0 -1 -1
474 0 2 0 -2.7792418730094575 -1.0091126539191455 -7.790922313187762 1 -1 0
641 0 2 0 -2.8934132718416503 2.6633315295954816 -3.545775255468727 0 -1 0
141 0 1 0 -1.2475894328089723 -1.7844146130502612 -4.1563618968651745 0 -1 1
303 0 2 0 -1.6559171400646413 -0.5728516226180211 -3.2387531520951542 0 0 0
704 0 2 0 -2.0278136489385883 2.7726102069882614 -6.140280606918169 0 -1 0
659 0 2 0 -4.607383268256381 2.9383419545085037 -5.50584359552968 0 -1 1
74 0 1 0 -0.5631487541776892 2.082181291910489 -6.546978919194964 0 0 0
309 0 2 0 -0.3652023705098095 0.7312921037962212 -7.405227787581584 0 0 1
291 0 2 0 2.007607252087304 -2.9273852611838134 -5.445254081021203 0 0 1
393 0 2 0 -0.05681292718743336 -1.3953444059741225 -5.091374862916161 0 0 0
546 0 2 0 1.7746084310441042 -0.6897240820181167 -6.817018586220202 0 0 0
416 0 2 0 2.3233720575609347 -0.5344199383862218 -4.317583554714545 0 0 1
218 0 1 0 1.545282348497885 -1.3710531078442196 -5.409748111343822 0 1 0
483 0 2 0 2.4000221366217076 2.08981209222703 -3.7618769478576635 -1 0 0
225 0 1 0 3.227410869900858 0.7906533256335049 -4.189747668427596 0 1 1
38 0 1 0 0.8264004245137961 2.490541400801714 -3.788428875543249 0 -1 0
431 0 2 0 0.1168383890062934 1.8496406425123713 -5.080754559272727 0 0 0
401 0 2 0 3.9063728363513555 1.0059901499200574 -5.649700765264849 0 0 1
181 0 1 0 0.8844635807460364 -0.10668181843663582 -8.050599424488718 0 -1 0
367 0 2 0 4.554429856788911 0.593660607526358 -3.12582310713566 0 0 1
296 0 2 0 4.451930006724361 0.18894906022991975 -8.05592655840959 0 0 0
121 0 1 0 5.099077600633368 0.3553517143802729 -6.574020702019234 0 0 0
592 0 2 0 4.56713594304507 -2.1619455914042174 -3.4842908135539776 0 -1 0
653 0 2 0 0.11569377596772412 1.5711413398572631 -2.627225058026526 -1 1 0
224 0 1 0 5.3769539550633105 -2.4693013748679453 -4.872234010476676 0 0 1
219 0 1 0 9.42938142706484 -2.59813134682204 -6.420476143402233 0 0 -1
618 0 2 0 5.567050096627209 -1.077803792911344 -5.834923460848538 0 1 0
161 0 1 0 10.144079559149759 1.4295589666726958 -5.9974264327989575 0 -1 1
462 0 2 0 9.095293872641097 0.8292031569058231 -4.937381273318618 0 0 0
352 0 2 0 9.575361110661635 0.9900920576625953 -7.470553582288782 0 0 0
234 0 1 0 8.52976695786004 -0.6012467977187868 -4.274990917503523 0 0 0
428 0 2 0 8.545330465878582 -1.6525240431405388 -5.486389913499087 0 0 0
606 0 2 0 9.587989809437097 -1.0620507858838897 -3.208773302000652 0 0 0
580 0 2 0 7.08528007673128 -0.3101506411790673 -3.6214820630181146 0 0 -1
528 0 2 0 6.23105449006896 1.4601074061623862 -6.814104406098967 0 0 1
321 0 2 0 10.648899823661797 -1.6129096768448 -6.934231342940306 0 0 -1
178 0 1 0 9.317053819536618 -0.15599647474186007 -8.494806150135839 0 0 0
460 0 2 0 5.7610136424951115 3.0988129787693275 -4.958962988053141 0 0 0
642 0 2 0 15.920278452654578 -2.838790798225313 -4.543064730613937 0 0 0
586 0 2 0 15.151146611504089 -2.969987603836075 -6.948439173178181 0 -1 0
366 0 2 0 16.616485325957967 2.1498758298011236 -5.465070420707349 0 0 -1
336 0 2 0 11.512670728074017 0.6542721267978244 -5.96090514606247 0 0 0
135 0 1 0 11.226479155653717 -0.9758200511698876 -3.078671106928037 0 1 0
211 0 1 0 16.630961858076148 -2.1012599326617583 -3.325230301766723 -1 0 0
597 0 2 0 11.768999734750995 -1.435515443030245 -4.554248469966438 0 0 0
85 0 1 0 14.108280860818603 -2.0923963332904094 -7.744411842029672 0 0 -1
498 0 2 0 15.714046413030573 0.320396663689845 -6.9555136638244 0 1 0
232 0 1 0 15.33089332870933 1.2447323355359288 -5.735478488613488 0 0 -1
411 0 2 0 15.039236378788708 0.3315681517559348 -4.406235144997456 0 -1 0
102 0 1 0 11.858899234248558 -0.9269759990187136 -6.113987341702245 0 0 0
604 0 2 0 13.328952415514525 -1.2039115774913531 -6.6750235383425585 0 0 -1
536 0 2 0 14.036795887015892 2.1478696597328213 -5.9597262927306325 0 -1 1
10 0 1 0 15.615990105136085 0.5536556437809494 -2.840631036195556 0 0 0
578 0 2 0 -16.278031841729412 3.345837920991336 -4.156608101582651 1 -1 0
689 0 2 0 -12.796247239542467 6.164018236446056 -3.756726004959045 1 0 0
374 0 2 0 -17.709081837103618 7.370589992331844 -7.131469041468886 1 0 1
451 0 2 0 16.897115964836885 4.895551050108638 -3.1384482588051865 -1 0 1
240 0 1 0 -9.835412999276103 -8.55233210329515 -6.185543781499845 1 0 0
449 0 2 0 -6.775442006578414 3.021416915032731 -7.056008978594779 0 0 1
212 0 1 0 -8.666938789276578 7.737207123957905 -3.8132932626519667 0 0 1
626 0 2 0 -7.751520973004668 6.7840476919186745 -4.864505016745328 0 -1 1
413 0 2 0 -7.487782187520612 6.703231158681032 -7.501602690037267 0 0 1
306 0 2 0 -9.920113232887385 8.292892916679474 -4.583076753294817 0 0 0
568 0 2 0 -9.897793522206147 7.454876261990602 -7.067121849966867 1 0 0
87 0 1 0 -8.95947358760503 6.853378732178616 -8.158397800696267 0 0 2
519 0 2 0 -6.891072939731465 3.2656570041634083 -4.30699605822388 0 1 0
222 0 1 0 -6.67899943591066 6.610268854441012 -6.092450400060452 0 0 -1
90 0 1 0 -7.264081123027632 3.7282884041498487 -2.866129966460509 0 0 1
486 0 2 0 -9.318605219041563 5.364086705756263 8.411529998977452 0 -1 0
715 0 2 0 -5.972417578791829 5.194178917643436 -5.874890139660193 0 0 0
720 0 2 0 -2.8125564836141272 7.19156041187969 -6.288212248254018 0 -1 0
65 0 1 0 -6.107371932424526 3.594191828497628 -5.671935785738787 0 0 0
419 0 2 0 -3.962340047236971 7.026734428551791 -4.101202791178246 0 0 1
111 0 1 0 -4.014813431729154 7.8379900876127095 -5.457366264364023 0 0 1
332 0 2 0 -5.480323940196538 7.6914023261414854 -6.140134082524861 0 -1 0
114 0 1 0 -1.2341914200719124 7.161581858828168 -5.983910650077113 0 -1 0
610 0 2 0 -0.5935257810664147 5.653785592208848 -6.031732818506484 0 -1 -1
223 0 1 0 -0.7616074259480037 7.877692300904776 -2.9751838972372457 0 0 1
439 0 2 0 -1.0739998204118137 7.956376827009343 -4.525650283650689 0 -1 0
277 0 2 0 -0.6925450820610131 8.095377437154482 -7.2200044577008615 0 -2 0
379 0 2 0 0.2876888595742848 3.2755846419197923 -7.162528532164025 0 0 1
68 0 1 0 0.48003498877316986 4.8849143645994175 -7.001694773085771 0 0 1
185 0 1 0 4.7863938364865035 8.117163335036818 -6.795197053394034 0 0 0
254 0 2 0 3.5050082514823657 7.4499734504373265 -6.058309241150069 0 1 1
370 0 2 0 2.0039965521448124 5.15996086563176 -6.546655152857736 0 0 1
235 0 1 0 2.7727810754962654 6.130311914373305 -5.429157380364234 0 1 1
587 0 2 0 3.938329393204949 5.586335961041884 -4.365721582472537 0 -2 -1
647 0 2 0 1.6248085609043308 6.501959335248966 -4.417473867347702 0 0 0
42 0 1 0 1.0668520005286908 5.522738648597677 -3.170289740630759 0 -1 -1
487 0 2 0 0.53393650000584 4.076963199915944 -3.7268712334772776 0 -1 0
184 0 1 0 3.961693444575417 5.308026105020623 -2.750343508481632 0 -1 1
542 0 2 0 -0.1392543160487847 5.488845582187256 -8.477400535211645 0 0 1
190 0 1 0 6.434842303413998 3.030986670842781 -6.403855287192368 0 0 2
436 0 2 0 10.356208450327404 3.053022895706846 -5.942668646370322 0 0 0
368 0 2 0 5.5746094363662095 6.79410777795492 -7.458884469574045 0 0 1
208 0 1 0 5.575883195052384 5.404321559657495 -8.277134096214125 0 0 1
13 0 1 0 7.878263263687781 8.024781743700029 -3.223302017621574 0 -1 0
574 0 2 0 5.655055762482881 4.117221236317242 -7.278717549661877 0 0 1
276 0 2 0 7.9562385810170255 3.62438068050678 -6.429792200847158 0 -1 0
4 0 1 0 6.0716814173114635 3.446169775648217 -3.452551572793154 0 0 0
645 0 2 0 8.292103787132966 7.566856914689765 -4.721399582582699 0 -1 1
290 0 2 0 9.718955414175444 5.666022283158741 -5.958657145559019 0 0 -1
24 0 1 0 9.445732363589244 4.196178368365857 -6.625493795424081 0 0 1
116 0 1 0 9.44007709314469 7.2616945360059155 -5.763202904029114 0 -1 0
361 0 2 0 7.191285048606737 4.548177596297997 -3.407218048290387 0 0 0
539 0 2 0 9.017324670558516 7.825967455046584 -7.1657258483853 0 0 1
634 0 2 0 10.835579233168861 7.97502296540695 -5.200144784613483 -1 -1 0
513 0 2 0 9.837138718033891 4.279131696593986 -8.229861388129297 0 0 0
664 0 2 0 9.643470062430033 5.2560103129419335 -2.8988206916333965 0 0 -1
93 0 1 0 15.969497984066471 6.188596239521122 -3.5239294762814355 0 -1 1
684 0 2 0 12.763684437734096 6.385199595360188 -4.8719045165951815 0 0 0
48 0 1 0 12.032071287210858 7.636467910434163 -4.186023285259157 0 0 0
617 0 2 0 13.887758270080539 4.798869540266887 -6.394437017755705 -1 -1 1
599 0 2 0 13.930037035293399 7.527907483943398 -6.860052673364071 -1 -1 0
330 0 2 0 15.382908453815759 6.3643546304566065 -5.0155189092180565 0 0 0
149 0 1 0 14.015057227803485 6.26731875494143 -5.8475200611909965 -1 -1 0
16 0 1 0 14.062356320515612 8.14660802097152 -8.362103338489716 -1 0 1
126 0 1 0 13.859288434631726 3.560046916065911 -5.475644911216808 0 0 0
517 0 2 0 14.1237903088008 3.7263753257571306 -3.923536142446978 -1 1 -1
351 0 2 0 16.773189763388118 7.457398300369345 -3.0143798418820555 -1 0 1
399 0 2 0 -16.817708283896675 -7.8335629924181855 -2.3629201112058276 0 -1 0
553 0 2 0 -16.148060311856977 -4.316411458719361 -0.5970801978913345 0 0 0
71 0 1 0 -16.076822312971643 -4.653348188931467 0.9445037136101924 0 0 0
534 0 2 0 -15.376218714324091 -3.444180045675309 1.7434245671924238 1 0 0
535 0 2 0 -15.496448523210852 -6.1368651608422145 1.353851584878365 1 1 0
353 0 2 0 -17.55600884382933 -4.648983663047366 1.5688849811483578 1 -1 -1
323 0 2 0 -14.044739072584393 -7.829960725813216 -0.17559505438440226 0 1 0
658 0 2 0 -12.625320472046806 -8.103824887486967 -2.4257242513370763 0 1 1
201 0 1 0 -14.338023530123925 -7.201118945804495 1.3114132902042392 0 1 1
550 0 2 0 -14.568654685032536 -8.58611880717433 2.2554887409792563 0 0 0
620 0 2 0 -13.02284578150594 -6.513484033209789 1.950327528166504 0 -1 -1
164 0 1 0 -16.341300371399917 -3.20142694124414 -1.6882543281345956 0 0 1
544 0 2 0 -12.791697801636262 -4.099589549132515 -0.364993889478642 1 0 -1
512 0 2 0 -8.565614804969318 -4.742457744882195 -2.162580034699954 0 0 0
316 0 2 0 -11.171518148887255 -8.282701279692395 2.1077876065581087 0 0 1
426 0 2 0 -7.380809940035208 -4.636654448153383 0.1579384904204062 0 1 1
348 0 2 0 -8.55063414590756 -3.9022491249286233 2.3933406105766526 0 1 0
137 0 1 0 -7.135539978882022 -4.113337441086238 1.6029835716114231 0 -1 1
206 0 1 0 -7.508250218966056 -3.9211654617428113 -1.286191558562976 0 0 1
625 0 2 0 -10.591302511709774 -5.589091578502336 2.334139247807734 0 0 0
187 0 1 0 -11.589726565270038 -6.813102905970272 2.662178147793144 0 1 -1
652 0 2 0 -6.131398326754315 -5.073493277049765 2.468030559454858 0 0 0
297 0 2 0 -6.01571129894983 -3.843240009846081 -1.9125039304498053 0 0 0
637 0 2 0 -3.542303849731397 -4.119154829329037 -2.360113355722632 0 1 1
425 0 2 0 -4.210544719828642 -6.700613651672758 -2.191351376882677 0 0 0
80 0 1 0 -4.817482700920939 -7.843206726650822 -1.335736724402099 1 1 -1
454 0 2 0 -2.755029617242256 -8.288291076198066 1.4834960296916027 0 0 1
538 0 2 0 -4.890025374453154 -7.718572023418902 0.20639353892331158 0 0 0
384 0 2 0 -1.4631756465688035 -6.346176088250418 2.735155428194993 0 0 0
125 0 1 0 -1.7048804949380063 -7.905561022572091 2.6684101634156594 0 0 1
12 0 1 0 -4.550092980850518 -3.05100833688247 -1.835694923635602 0 0 1
310 0 2 0 -0.2694782320058877 -8.57273364877245 2.5018529099559927 0 0 0
245 0 2 0 -4.2042486948306514 -2.7783891133851286 -0.27239801969924926 0 1 1
258 0 2 0 2.792862635104381 -5.933948456821438 -1.9969340475227435 0 0 0
522 0 2 0 -0.18564960156147592 -4.178420444264666 2.136639666603081 0 0 -1
627 0 2 0 2.519618035749314 -3.420496090504134 -2.521862763333038 0 0 1
364 0 2 0 4.8376085244975435 -3.4498794541340656 -1.136646695946185 0 0 0
143 0 1 0 3.7018537078499705 -7.272549811331617 -2.0902202394500833 -1 1 1
349 0 2 0 0.7171019412884014 -7.408822181996704 0.19045291981296764 0 0 0
272 0 2 0 4.928772336604901 -7.011678647915286 -1.107747987065907 0 1 -1
705 0 2 0 1.9633913018746298 -7.262287826023265 2.523207553631961 0 -1 0
148 0 1 0 1.0656113491656534 -8.171167040816716 1.6049310446197307 0 1 0
582 0 2 0 2.5493192747100224 -8.290576248248302 -1.570482768198091 -1 0 1
61 0 1 0 1.067447667182865 -7.871589762106123 -1.279180612819406 0 1 0
327 0 2 0 0.1347162114019298 -8.324002477077498 -2.408038476818195 0 1 0
196 0 1 0 5.729418090349455 -7.8898912028727395 -0.028980036250073837 0 0 -1
443 0 2 0 6.8170164742231485 -5.018254227852672 -2.2085043310306016 0 -1 -1
7 0 1 0 7.61266338525467 -4.995193979955202 -0.7735458453209185 0 0 -1
435 0 2 0 8.476170271675205 -3.6506417719015207 -0.685590399881753 0 -1 0
632 0 2 0 8.669800602079082 -6.219175660096809 -0.9679831431892723 0 1 1
591 0 2 0 5.7810627703959305 -7.280894587931871 1.4082858494275126 -1 1 0
502 0 2 0 6.852471226739674 -5.1765192700727685 0.6565716322988031 0 0 0
678 0 2 0 9.602460707214277 -4.086351387732287 1.5963207580524728 0 0 -1
421 0 2 0 7.213236735230666 -8.183242019403762 -0.44983065173209447 0 0 -1
92 0 1 0 6.446428225026949 -5.943872840341274 2.000607380427649 0 1 -1
95 0 1 0 8.715339484600175 -7.803510741644111 -0.9459605202536867 0 0 0
478 0 2 0 8.873553286845528 -8.472334576870782 -2.354113325577732 0 1 0
200 0 1 0 10.900338040067137 -4.972317059393047 1.9498535963389774 -1 1 0
247 0 2 0 10.290558889118817 -8.341534820441982 2.635481033302856 -1 0 0
49 0 1 0 9.068174116940643 -2.900232013378049 0.5844401628925411 0 0 -1
558 0 2 0 -17.934570945006826 -3.3575871163306568 -2.210065194758501 1 0 0
699 0 2 0 11.25134962379363 -5.950110141750226 0.7444274421719399 0 0 0
423 0 2 0 11.479476116941736 -6.329910864705855 -2.089076547274564 0 0 0
615 0 2 0 12.444798910833025 -4.397554612425553 -0.831988371308646 0 0 0
197 0 1 0 12.153292306720658 -5.936963062055092 -0.6483445298291342 -1 0 0
325 0 2 0 13.527996401541252 -6.726852765140357 -0.6569417507835169 -1 1 0
497 0 2 0 15.574368274764552 -5.657765719910724 -1.979911690938681 0 0 0
270 0 2 0 15.67151403901213 -8.30702127657733 -1.379474121912824 -1 0 0
160 0 1 0 15.110394348061398 -6.876423651969075 -0.9559634838851743 0 1 0
128 0 1 0 14.939488085345786 -7.231950418864011 1.8797121571130493 -1 0 0
667 0 2 0 14.023187478239354 -6.008400927455907 2.36325977604956 -1 1 0
427 0 2 0 15.7817676876493 -6.813533012564287 0.5847921176926381 -1 -1 0
385 0 2 0 12.267190259386005 -4.120172786150768 2.220070498438419 0 0 -1
183 0 1 0 15.47812255478241 -4.120879482431535 -1.738086821301276 0 0 0
718 0 2 0 15.300308299580408 -4.099579290844431 -0.11964019131477244 -1 0 0
33 0 1 0 15.983151415265716 -3.7320792589408 1.282497694911358 -1 0 0
45 0 1 0 12.584764456615009 -3.4104975038056518 -2.1071448098212517 0 1 0
612 0 2 0 14.165789762984318 -3.4548812183475457 -2.447443058973249 0 0 -1
473 0 2 0 14.982862327615173 -3.691733605688272 2.5212214863891464 -1 0 1
577 0 2 0 14.003115849889525 -8.511035325794099 1.4837764944628535 0 0 0
58 0 1 0 13.638527031849563 -4.513652724969212 2.8848613020993294 0 0 0
465 0 2 0 -13.070856106592228 -2.2999780435848 -2.3480057916660266 0 1 0
302 0 2 0 -13.718415016374184 -1.6197676927302025 -0.0015922383835658138 1 0 1
19 0 1 0 -13.088669497217134 1.1358299800615193 -1.457058245772453 1 1 0
541 0 2 0 -14.236775071907498 0.08150322900382179 -1.6788948706841706 0 1 0
131 0 1 0 -14.90723286065462 -0.7550742200508376 -0.5005677176469927 1 0 0
262 0 2 0 -16.103558908173326 -1.7733451758809524 -0.9705825455939161 0 0 0
567 0 2 0 -15.331674508533169 0.4481788529702335 0.5399607032424694 0 0 0
299 0 2 0 -13.80416675490326 1.9130928882711196 2.416945512089873 0 0 0
674 0 2 0 -13.56188155872615 2.062154676250012 -0.13804093814418472 1 0 1
152 0 1 0 -14.631913963440667 1.9081656562852114 1.0261417772700199 0 -1 1
215 0 1 0 -12.677933735556323 -2.5572041882425776 -0.8159569693614914 0 0 0
673 0 2 0 -12.897084436106464 2.340658124963211 -2.458212567215739 0 0 1
719 0 2 0 -16.4924643418438 -1.2069636517268858 2.3717847819758386 1 1 0
50 0 1 0 16.873398437566017 -0.9438562166427031 1.890119400897392 -1 0 0
670 0 2 0 16.857015335754383 2.775618017157692 0.06865519426189337 0 0 -1
127 0 1 0 -8.090036460587804 -0.9047140000727367 -1.7861605528443647 1 0 0
264 0 2 0 -10.590097682733635 -0.20231639210865104 1.3165545519826356 0 0 1
624 0 2 0 -8.011593491013471 -2.406674057055013 -1.1273137503454391 0 0 -1
622 0 2 0 -11.197183395734658 -1.9129247610317686 -0.5388040495100812 1 0 0
526 0 2 0 -9.17676380131059 -0.13248216706505644 -0.839324252528515 0 1 0
514 0 2 0 -11.685204022898365 0.5155562481749527 -0.9994459299388332 1 -1 0
147 0 1 0 -10.612549295166906 -0.4591627549137325 -0.24290905013948638 0 1 -1
533 0 2 0 -9.174016932727476 1.6010438737730457 2.509854218089563 0 1 -1
180 0 1 0 -9.617556718569304 0.03217133164391939 2.524412590782946 0 1 0
390 0 2 0 -6.691141288215523 -0.14467285987516298 -1.826762309613489 0 1 1
676 0 2 0 -8.860677119903379 2.631405847930317 0.13483947813033303 0 0 -1
485 0 2 0 -8.173620130703624 -0.7062804649988914 2.380179754837391 0 0 -1
700 0 2 0 -6.33029198262161 -2.6729223722980224 1.3538993891216418 0 0 0
239 0 1 0 -8.69375532080734 2.9106270109831325 1.6980138810113292 0 -1 -1
43 0 1 0 -5.438796415200828 -0.15596456268789538 -2.7779505081618945 0 0 1
314 0 2 0 -4.693188017805356 -1.6395926812374455 -2.5944499350739907 0 0 0
231 0 1 0 -3.3010818070810934 2.0436575943039355 -2.128053665740935 0 -1 0
633 0 2 0 -4.43411500340823 0.9607316592241482 -2.2245652187319482 1 0 0
375 0 2 0 -2.0438134563257595 1.2791193104761778 -1.4151082215955375 0 0 0
397 0 2 0 -4.02942482188535 -2.1695929736489106 2.4025916081926386 0 0 0
326 0 2 0 -5.917569120840287 0.5414584667467341 2.7455462479075834 0 0 0
668 0 2 0 -3.5076781652160207 1.274352373657747 2.019480996759487 0 0 0
188 0 1 0 -4.93557806825631 0.9444244123636985 1.4657734261172646 0 1 1
690 0 2 0 -4.97302080443016 -0.5198497944081151 0.6916908711998477 0 0 0
70 0 1 0 -4.8540895369957475 -2.0654815859095867 0.9984133441956775 0 1 0
588 0 2 0 -5.458741535824695 2.0592270775644828 0.49134821019546493 0 0 0
107 0 1 0 -0.9206609122681968 0.443421637172035 -2.133216280497871 0 1 1
607 0 2 0 -0.39601888249013584 -1.6454093139150556 1.2495855985241207 0 0 0
268 0 2 0 -0.3812610424978651 1.013514622459839 1.0540503001125945 0 0 0
158 0 1 0 3.866952071833115 -2.6196066436663026 -2.0480689070624623 0 0 0
476 0 2 0 -0.16937611391909968 -0.5698502998281594 -1.1153749531038972 0 0 1
391 0 2 0 3.3144794622794294 -1.4687705237699689 -1.0774282221083586 1 0 -1
266 0 2 0 1.8906377679098263 -2.887124390421058 0.8395118971382125 0 0 0
75 0 1 0 0.08720039624115117 -0.3482871120138977 0.4017319620536739 -1 -1 1
3 0 1 0 2.8221375469585652 -1.488271716762826 0.3876678092769428 0 0 0
494 0 2 0 1.7395185297615825 -0.356300542664183 0.6677097705346444 0 0 0
636 0 2 0 3.94611494913201 -1.3917206438398013 1.493559467221358 0 0 0
130 0 1 0 0.5714333094532158 -2.792572182533661 1.7632753729266053 0 -1 0
109 0 1 0 0.007516973961148921 1.7607237176868544 2.3843765111253674 0 0 1
655 0 2 0 4.996063687097845 1.988574293097333 0.22597753024073697 0 0 0
696 0 2 0 1.2224848549188536 2.7298472207939426 2.2316252507203913 0 0 0
584 0 2 0 6.746244556536897 2.118457418782059 -2.773703886350037 0 -1 0
104 0 1 0 6.141709378655907 0.5613509537706953 -2.6334694338738593 0 0 0
493 0 2 0 7.838778857501218 -2.02459627046556 1.1066802080523068 0 1 0
269 0 2 0 6.297683848650156 0.13638726006652746 -1.1092067149107567 0 0 1
94 0 1 0 6.330169166568918 1.0790275488989387 0.23907979606187446 0 1 0
383 0 2 0 6.453434615468687 0.24048022957053306 1.621718638393526 0 0 1
583 0 2 0 10.4481984445226 -2.1097573165848447 0.42456139887245925 0 1 0
229 0 1 0 7.098463892640055 -1.0680845121306755 2.1809389126367407 0 -1 -1
414 0 2 0 9.74569599983909 2.3061220939743237 -1.6310173258094363 0 0 1
417 0 2 0 7.7283725304824955 1.961132172039532 0.12200147596582944 0 0 -1
25 0 1 0 8.471740347674906 2.8772972105315535 -0.8609514376978735 0 1 0
459 0 2 0 10.617809451187142 0.21874839550002356 -0.5046057571249136 0 -1 1
389 0 2 0 10.809690044255682 -0.08636693536761264 2.085725288920697 -1 0 -1
189 0 1 0 11.041096964352196 1.4046550296232336 -1.4578037095712988 0 0 0
430 0 2 0 11.472377658785433 0.6345779416118695 -2.8224819340504004 -1 0 0
113 0 1 0 11.227714660987282 -0.7129431844847254 0.6446633784867721 -1 0 -1
339 0 2 0 15.970589398776738 -0.9238974726338762 -2.4253912429990727 -1 0 0
504 0 2 0 16.638416995184997 0.27923015261204753 0.9760287261972973 0 0 0
403 0 2 0 11.944891287588007 -1.9467528349853795 -2.0357044393698116 0 1 0
557 0 2 0 12.788949943456096 -0.8876213541542546 0.5262904051186954 0 0 -1
571 0 2 0 14.54788483055674 1.892778783813407 0.6790859299041792 -1 1 0
243 0 2 0 14.533116724240948 1.235250556091648 -1.8869237368068958 -1 0 0
60 0 1 0 13.909354677924462 2.31711665477164 -0.7077164785841754 -1 0 0
712 0 2 0 12.322493999363495 2.1038602420547043 -0.79636987700699 -1 -1 0
52 0 1 0 16.07507066752524 1.7770930540072403 1.0813522004165232 0 0 0
246 0 2 0 16.4844276385099 -2.238634116889531 1.068776161053238 -1 0 0
444 0 2 0 16.33740374179935 2.1564854970645584 2.6061127593231763 0 0 0
683 0 2 0 12.182713558058506 2.0314929360242573 2.574103476173555 0 0 1
241 0 2 0 -15.375788015763751 5.543193658859131 -3.157567532189433 0 0 0
396 0 2 0 -15.645649066456457 3.138684589193451 0.9245731590835149 0 -1 -1
83 0 1 0 -16.424577904737497 4.373589977399563 -2.9333714693087334 0 0 1
82 0 1 0 -13.105858080189737 8.500380363641913 -1.115449062885702 0 0 0
575 0 2 0 -13.337398403135493 4.8090592792443445 -1.6415139190533372 0 -1 1
213 0 1 0 -16.6891859922217 6.674379052911457 0.588337385988325 1 0 0
698 0 2 0 -17.001077298011126 7.7198472548359724 -0.5662745572628989 0 0 0
29 0 1 0 -16.754297984234608 3.7221353303271503 -0.05105296717314722 1 0 0
331 0 2 0 -17.273892832340856 5.2191192131781 0.14674628607296825 1 -1 -1
36 0 1 0 -13.883098299686264 6.021449768680492 -2.639527678589718 0 0 0
395 0 2 0 -16.236562303079513 3.6147351259573437 -1.6007360117354992 1 0 0
466 0 2 0 -13.987133139674485 7.3277597575946345 -1.6777582170607896 1 0 1